1728
Lattice="32.827670801992014 0.0 0.0 0.0 32.827670801992014 0.0 0.0 0.0 32.827670801992014" Properties=species:S:1:pos:R:3 comment="LAMMPS data file via write_data, version 24 Dec 2020, timestep = 9354" pbc="T T T"
Si      15.03310430       2.94127400      26.04202177
Si       0.95930272      26.87871080       0.88297230
Si      21.77466778       1.08595137      30.55029037
Si      14.55794259      23.92420294       1.23607428
Si      15.09048289       1.53618775      20.07725672
Si      13.91089655       7.95515727      20.11410138
Si      19.20352592      27.93777497      25.51236586
Si      18.76104674      13.19625159       2.33837611
Si      10.78549612      17.51669579      10.65951295
Si      13.70710815       9.14620936       3.79093972
Si      25.14215382      23.86331741      29.63253046
Si      28.75570537      15.51310877      21.62847228
Si       3.36415456      13.00607478      22.21019360
Si      18.98118864       9.21600171      29.27776598
Si      12.45638170      23.31003306       0.40872316
Si      11.37976540       7.76793296      31.44028820
Si      19.16022211      22.76552437      18.66962282
Si       4.53299865       7.29277470      25.98192123
Si      11.82471046       8.74039023      27.40819779
Si       4.18499207      27.29628050      28.26947455
Si       5.10924891      26.45085659       2.94852142
Si      32.28472733      12.12203164      12.06174792
Si      16.03653784      10.08420735      13.42533225
Si      29.03804182      25.33348041      22.59385392
Si      23.63685304       8.77156096      18.82552375
Si      11.48928917      16.63964470      26.32948828
Si      26.29687870      29.35249391      24.72243754
Si      26.17565327       2.91234453       7.82948611
Si      14.93824135      29.45862204      22.23390340
Si      17.98617776      11.29481158       3.51193133
Si      21.53280393      28.10222528      25.48316019
Si      22.40475484      30.73095353      22.76539150
Si       2.44672175       5.41911655      15.27313213
Si      25.51937734       6.59625201       6.89330855
Si      27.06421397      16.03847617      31.13085281
Si      27.98642526      26.03354559       4.35847233
Si      21.02830374       3.67744763      32.69109652
Si       5.28595664       7.68076093      23.77141157
Si      23.15620733      27.22273354      22.16062274
Si      31.30349387       3.98378170      25.40596934
Si      30.51928776      27.82038699      31.64451744
Si      13.78700614      29.74385785       6.53348967
Si      28.35512235       2.29414997      31.32838429
Si      15.87521672      17.06962927      20.96044770
Si      25.81287358      32.34638345      12.11740386
Si       3.22227522       7.32079632      20.20914422
Si      15.70855356       4.68948842      10.53230888
Si      23.17026039       7.48788816      23.90090458
Si      15.84633215      29.43114574       7.76583007
Si      12.02584884      28.40545785       3.64615715
Si      18.02339593      26.19341646       8.63573578
Si      21.55250045       2.53662037      11.29627650
Si       3.24795306      20.20737611      17.55175661
Si      30.85162096      30.35150771      14.31760974
Si      18.86152197       3.88546917      26.18273092
Si      25.34571873       6.87600944      11.03862249
Si      22.88194332      16.23990881       0.17428307
Si       8.95753809      14.22059242      31.40789626
Si       6.97618404      32.37934466      31.08063859
Si      30.53846757      20.04408159      28.43100589
Si      22.49772678      16.86309992      12.56406770
Si      27.80084631      23.94316742      18.80562583
Si       0.39533134      30.77528531      22.88338266
Si       3.28113254       6.83108291      29.85907416
Si       8.83412291       8.55633641      14.65656741
Si      31.40134284      25.45349161      26.30488023
Si      29.75988220      30.97856844      18.12925978
Si      10.14432500      29.84813561       8.24032060
Si      20.97448191       7.17754022      24.82718509
Si       6.93376346      15.04634745      14.86954164
Si      29.34927719       8.61474049      19.22332389
Si      10.27960883       1.91043886      17.84654443
Si      24.21796238      23.26816208      31.81325652
Si      13.43146940      25.95107845      28.20887716
Si       1.02524936      27.62169201      24.79777768
Si      24.80084230       0.44784043      23.63718283
Si      10.25620445      15.32726235       0.31214397
Si      27.38506651       8.16834988      24.20229718
Si      17.30991826      10.39072310      19.36328440
Si       9.34428397      31.27448256       3.60279582
Si      16.45772234       4.74531080      18.44528793
Si      14.04452037      26.20504542      24.50191483
Si       4.77945569      26.77422454      32.05096166
Si      10.78604781      21.90456637      22.53818435
Si      30.63452521      11.87917984      17.65951937
Si      26.96446629      17.89627393       7.26452789
Si      21.05617705      12.98996346       6.55917393
Si      21.51860309      10.25412259       3.50666995
Si      31.40919697      15.91361228      18.04843734
Si      18.56661983       8.00896573       5.31644603
Si       9.67358463      13.26615105      12.10821044
Si      31.16255774      24.44837042      12.30570989
Si      32.43419008      30.37629657       0.99826230
Si      21.09023268      24.56073209      24.06528724
Si      30.53967671       4.22401549      19.88279993
Si      25.93022737      12.37293532      32.09474845
Si      24.92420426      31.85061947      16.36686328
Si      26.62716830      19.78403596       2.53409782
Si      19.08616579      11.89127552      10.19654566
Si      31.86978989      31.18971278       6.79033213
Si      24.90664709      29.58675647      28.12706976
Si      30.05462499      17.21836666      11.81783021
Si      30.76567345      28.03499195      13.85988230
Si      21.63638487      18.64160147      30.51166532
Si       9.07494955      15.87047449       7.35748433
Si      25.50578191       2.25325983       5.68758647
Si      22.59937444      31.95350832      16.70908200
Si      23.81798513      21.28682638      18.73631402
Si      32.03806713      23.89941849      20.58690260
Si      20.92820442      18.83558425      24.06618934
Si       0.82796117      21.30650687      27.74046842
Si      15.51145474       3.82342075      20.29221792
Si       2.54431697      21.82438711      10.15277250
Si      17.98554602      14.46703747      23.32178791
Si      17.68199140       7.51912834       1.61614969
Si      28.61965406      14.76458508       5.85747843
Si       8.13913800       3.84673680       4.41594285
Si      31.42350660       7.61733411      25.25008178
Si      19.88428062       5.02201064      18.85661419
Si      13.18124461       6.85940655       4.13560376
Si       1.96832807      28.20007836      11.16624626
Si      26.64701773       8.54041015      16.58149435
Si      24.99378172      26.23279030       1.08503333
Si       1.06949926      17.96077516      12.43553760
Si      31.60649480      11.94423857       2.89169254
Si      13.94299791       8.57143060      23.81550641
Si      31.45632994      13.31724576      26.85039920
Si      19.77671976      10.74517227      25.72010701
Si      12.99070667      27.34110462       8.89617492
Si      10.47702598       5.37596733      15.18112588
Si      13.96149627      25.40793058       7.99415204
Si       6.58305395      31.71392271      13.38989237
Si      24.99731025      32.43853420       3.11657162
Si       0.99804302      19.29715093       6.55590094
Si      25.96602525      21.61509143       6.82958333
Si      17.06874037      32.30192299      10.00406367
Si      18.06364462       0.64244813      30.03928573
Si      21.31368154       8.72946872      18.71336196
Si      17.08969174      19.73084721      28.69074133
Si       0.79639590       4.25688501      28.18429231
Si       0.39994641       8.30266165      12.82644728
Si      29.46882842      14.30161101      27.72087128
Si       8.27062817      30.37632170      30.62539799
Si      10.29305640       4.43235513       5.28873931
Si      26.00402566      22.52828454      12.34178808
Si      21.30085933      21.56605329      21.65855890
Si      10.48686857      23.98061465       1.55483526
Si      19.29652190      31.30533209       5.09278537
Si       1.73017910       3.23976509      15.85277020
Si      12.60586764       4.78347064      18.50308662
Si       0.74920900       3.41785643      25.88121443
Si      19.24548660      14.33981333       5.81396084
Si      16.84811033      32.39614112      28.28284442
Si       5.58658041      28.73419602      18.86890302
Si      31.65325312      18.78673684      26.74391571
Si      11.72384197      20.14820085       2.67178586
Si      11.53851410      15.84392911      28.60875441
Si       1.75108878       3.21104425      12.48287793
Si      21.86129516      27.94785209      27.84074131
Si      10.27538756      32.15047012      11.35835545
Si      20.75935221      22.01452912      28.84642997
Si      29.87776361      12.38584813      23.66719831
Si      15.57855913      17.83534766      32.49113871
Si       5.73181392       2.35201433      24.23757571
Si      17.00889567      21.72966250       6.86649412
Si      23.72672953       5.06941054      18.43528287
Si      10.24865790      26.28249633       1.33194227
Si      11.56008202      25.97620051      16.05101493
Si      25.34562530      13.26146652       5.89510170
Si      26.77998271       6.01942076       3.33895015
Si       6.19796018      26.51346641      11.57010930
Si      25.84404725      18.14935615      18.38967559
Si      28.58980415      30.60913272      13.63272814
Si       1.65547769      32.12643865       4.14432964
Si      21.87826350      24.63278099      19.11846002
Si      12.56442610      20.91208110       0.54213157
Si       9.52881372      26.52310189      10.18337545
Si      27.52530731       3.68890623      11.20485013
Si      16.93250229       9.96994737      28.27571422
Si      30.47199993       4.89255129      23.32967805
Si      15.02121890      15.07175449      29.85272450
Si       4.00507255       4.52135399      10.59040110
Si       8.03258014      12.39531666       8.56226459
Si      20.28532308      13.83071428      31.66983796
Si      19.90243065      18.42929604      15.12541255
Si      22.46864286      30.19723235      25.02386141
Si      14.48262819      26.22926302       4.51948437
Si       8.50776906      27.90776439       4.84961254
Si       7.24733302      15.86916508       2.21933583
Si      24.36627074      27.68482869       4.92538764
Si      26.54944210       6.77720316      20.34120402
Si      14.02539801      29.33356320      15.79679465
Si      16.10333302      19.29369639      15.36585737
Si       9.06092866       5.33667290      18.91958294
Si      32.58211741      23.76324490       7.92053798
Si      31.69957743       1.09870442      16.79590592
Si      25.05658281      23.56818944      21.49172950
Si      28.08394632       4.67932289      23.34221889
Si       4.40803214      13.01118690       6.87348820
Si      27.77644198      32.41296630      28.83124834
Si       4.58093962       7.90305727      13.43328377
Si       4.68093159      32.38012146      31.74612503
Si      29.88984250      19.06825254      30.59925764
Si      20.55325733      23.76498119       0.50466822
Si      30.92044879       1.93997535      28.69894335
Si      21.09612114      12.40139953      24.62741072
Si      25.84113595      24.58357104      15.64050390
Si       1.81113448       2.92769764       5.38869619
Si       9.45554443      22.03956307      31.33272892
Si       3.25973958      23.51748142      29.42236211
Si      32.28744006      10.48931641      18.65861580
Si       7.36783667       2.11821355      20.02901424
Si      19.00647807       0.21166323      16.10128230
Si      13.40113794      18.81839047      28.57785848
Si      14.15900539      16.38609176      22.43088098
Si      25.21786346      30.41975658       1.86374423
Si      10.22729482      25.97799822      19.98950251
Si      11.65604659      21.24986814      12.69823324
Si      25.71184733       2.78823277      28.90288537
Si       1.11463681       4.41109238      21.22249152
Si      28.86643636      31.40503903      32.59078417
Si      17.54728416      25.29659567       1.65663795
Si       6.06133269       3.11670474       5.27157678
Si       6.75111986      19.21719878      14.93232316
Si      23.02899389      30.34126110      31.52209780
Si      30.20596268      28.05505391      11.54262963
Si      27.97238769      17.31287020      17.74276093
Si      21.98121558      16.26978595      18.51905158
Si       5.48455796      26.71579903      17.60465697
Si      28.16130287      12.89831916      29.06059310
Si      19.30012333      31.25265009       7.47329134
Si      31.87614290       8.12639600       9.85842471
Si       9.81393215      32.64823916      22.02286916
Si       3.43922762       5.16792460       0.48757414
Si       4.29750094       2.74359412      22.41367225
Si       8.14578646      11.68149499      12.98609972
Si      20.18781938      26.82043904      29.11165941
Si       8.45627787       9.39265421      12.54575773
Si      14.52932884      11.45515949       0.40436684
Si      13.76028601      23.75386832      21.60782544
Si      15.77389814      20.55202700       2.54308322
Si      30.30674431      24.18203088       7.21025306
Si      17.50573498      18.14248009      24.10748025
Si       2.96614760      10.68509694      21.74233843
Si      17.22302150       9.83154717       1.88925268
Si      31.07266025      32.67584525      25.52854609
Si      30.66741950      25.91012576      10.52125875
Si      21.75360491      17.99688853       9.12397216
Si      18.18753009       5.73949896      22.82096435
Si       9.98442098      30.96374114      29.06923985
Si      24.37764772       2.89822565      15.80363052
Si       5.16652296      10.81920535       6.65780680
Si       3.50683702      14.70238056      20.62216538
Si      28.62893308      20.04473795      25.11782947
Si      14.07570541      18.50559988       9.04159827
Si      11.98672944      32.22149199      12.93262649
Si       2.55106040      18.48830572      25.48246290
Si      13.38155549       6.39577497      24.31622206
Si      20.14472870      14.59778648       3.61118938
Si       5.73805921      30.82299943       4.83484999
Si      27.49732620      22.42342889       5.20347362
Si      20.60413446       7.44611285       6.47204833
Si       7.55882537       5.57071454       1.01033767
Si      13.33671278       7.46125403      10.42546376
Si      28.93161364      22.99893774      22.61213651
Si       0.35174781      29.00727102       9.64866128
Si      13.92840193      16.32777920      31.62965617
Si      15.04845820      19.38462010       4.46203760
Si       6.19706441      21.53200050      14.87271425
Si       3.09411230      20.20076629       6.05164724
Si       1.98718058      27.26375124      19.11553759
Si      11.64398143       6.45944126      28.28941065
Si      23.71456913       6.72120129      27.52776213
Si       2.07622382      32.41245292       9.17723856
Si       9.71827830      11.60527284      29.10570173
Si      32.70902277      30.47025707      20.54773740
Si       9.93878967      20.08082277      23.68146622
Si      22.07367110       6.73721324       4.73746053
Si      17.06321240      29.15832535      18.65394503
Si      20.24628284      17.64582328      28.98550834
Si       8.40466628      19.07193152      13.20622302
Si      28.89009272      31.10019197       5.33107804
Si       0.15771904       2.52022929      29.62825564
Si       9.74745087       9.21498723      26.37906649
Si      28.37289979       5.50404214      16.76946956
Si       3.98088956      15.94133949       9.12809780
Si      13.93022022      20.23468529      23.02181230
Si      31.05331530      18.05105741      15.17461440
Si      10.34149287       3.03274238       1.65797789
Si      29.14772038      22.56855986      17.36555776
Si       0.68859813      31.89183060      30.94152815
Si      32.73133230      11.65312782      14.39937182
Si      25.05399502      26.21522972      29.89267389
Si      22.88212342      20.45332884      16.72331382
Si      15.78730474      22.68059622      17.22606479
Si       8.45119144      27.18217024       2.58205236
Si       1.78372231      16.48731605       8.84585467
Si       9.07311754      29.18357375      32.43670829
Si      18.86630297       5.40434073      11.67454493
Si       3.27657728      21.25714446      30.04983536
Si       1.90402887      21.24954902      19.28194630
Si      18.51478884      21.99321472      14.01297225
Si      30.52097339       5.30921887      30.19012608
Si      28.70024892      32.57763010       1.87107247
Si      17.20067982       2.31741486      25.39389894
Si      19.63639155      23.04637203       9.89649492
Si       0.13237833      25.13330461      13.68395184
Si       9.48917157      27.33390016      27.09973917
Si      21.51994730      25.79272298       3.20885076
Si      28.64648345      22.71073406      32.19386000
Si       8.24918492       5.34622318      12.40777316
Si      30.91039955      24.02526905      29.56874873
Si      22.21419251      14.01806806      28.06959868
Si      21.63151502      23.74614893      15.08023497
Si       9.42007695       4.91017017       8.99388211
Si      27.49581209      14.96342878      17.88513043
Si       9.49640362      31.71573118      15.93594611
Si      13.04284009      30.19880583      12.54113060
Si       2.23584312      10.79510890      31.75697986
Si       4.03795507      28.72849398      22.31603282
Si      15.31819431      31.21831004       2.63243790
Si      23.23065457      29.11110608       1.84713438
Si      30.00934375       0.29079684      21.41164854
Si      25.11969165      32.76818022      25.94422866
Si      24.01930097      29.42193652      21.71319161
Si      12.36288672       4.68643795      26.95548487
Si      11.98722588      25.28255658      18.57495621
Si      19.53415733       0.58212644      19.87516679
Si      10.90081941       8.30365266      17.64199851
Si      13.86035339       2.56624996      15.93313622
Si      26.85717987      17.21105583       0.34279409
Si       5.56842178       6.73525490       7.60721677
Si      27.52954090       9.54370817      27.74464874
Si      32.52421848      24.33214531      31.25712565
Si       9.02926000      31.78546544      24.06455850
Si      20.12784997      14.75342728      13.82261096
Si      30.52671059      22.65414822       0.80543839
Si      19.93011373      20.11030619      13.42736640
Si      20.36231455       3.33727316       3.25151927
Si       6.36874553      27.82132688       8.09217879
Si      19.84726884      14.96214807      18.77486528
Si       6.61446541      11.26423565      26.19634072
Si      29.17093079      14.77217746       1.72796664
Si      22.52465816      14.00297442      32.47549672
Si      15.74207780      28.70260288      29.24425664
Si      20.98827556      24.81550448      29.89177973
Si       4.70310220      12.64815653      17.70584252
Si      20.41678165      19.62846296       5.14413299
Si      28.10339038      30.41720332       9.49090687
Si      21.77333674      27.02115561      19.10512482
Si       1.28775626      20.00046552      29.65324040
Si       9.48926055      23.29880757      16.69786417
Si       7.28372978      21.63433705       3.84333272
Si      12.06034877       6.41217264      13.75520836
Si      22.65443832      25.46629633      13.75470182
Si       7.65944839      31.12255294       1.99133615
Si      25.30768704       3.09904174      11.66841654
Si       2.30198918      29.08001958       7.06200339
Si      20.66009523      19.17660782      32.60712235
Si      24.63482049      18.08187653       6.79701882
Si      32.17370546      26.66084337      23.31966095
Si       9.92671473      16.98555381       5.46511581
Si      10.02629746      23.94611585      30.05884093
Si      13.59848849      30.53585515      10.33958724
Si       5.78836711       6.88244090      17.49752149
Si      26.59535082      16.88596390      24.42422434
Si      25.41487846      10.60528898      27.84031263
Si      15.91013528       3.82883131       1.89501428
Si      22.80354204       4.92665310      28.70622305
Si       5.83294367      30.41930243      17.18494196
Si       9.65187218      19.22003909      17.72943777
Si      32.08650324      19.37987322       4.97639426
Si      19.37136850      24.70058799      22.37457980
Si      13.29577548       9.81299390      10.61414776
Si      23.96542506       5.89799052       0.83020710
Si      21.76229261       7.92199663      13.89912166
Si      26.87123136       0.98959432       2.71251798
Si       8.50574786      18.48823574       4.41016078
Si      22.24727567      24.59676468      31.83401282
Si       5.49063957      21.61475695      20.38349172
Si      17.78850871       9.71447713      17.14275418
Si      19.53046503       3.26115804       6.91017317
Si      12.99228846      27.43936700      14.56905796
Si      24.11342157      15.01755211       4.72259713
Si       6.55627983      19.26445252       1.07698777
Si      32.66556629       5.15462858       2.77113896
Si      16.58387569       5.19744258      29.53555464
Si       2.60656789       6.95001854      32.09708869
Si      24.15346586      29.92500071      19.42181223
Si      14.92700492      32.75869060      32.13485594
Si       0.10871619       3.12970857      14.21250182
Si      11.82943262      12.06157006      19.43248604
Si      32.66274037      12.03247425      28.37556745
Si      23.53013870       5.48826747       6.17836484
Si      28.34771928       4.33420641       3.97155832
Si       7.50701927       5.77971769       3.33733270
Si      16.57625019      14.43745642      25.18926492
Si       5.44380527       3.34162291      20.46746819
Si      26.30980068      12.63277960      11.63775264
Si      15.91460264      13.83542539      20.15944394
Si       2.00568467      14.15696419      30.59194177
Si      17.83470574      15.04064101      27.11843287
Si      12.22636956       0.37176096       4.57415873
Si      13.04255285      31.92183331       2.75760731
Si      28.67194615       9.62775282       7.61999484
Si      12.75643451      25.10287889      26.12007516
Si      16.10233570      21.79168266      28.15312748
Si      20.01439721      21.08185404      26.89649031
Si      12.36364746      27.25169827       1.63550099
Si      17.54871097       6.28030858      15.32086637
Si       7.03414269      15.57367333      10.72591537
Si      16.52051863      31.18637671      21.64795050
Si       9.64220941       4.70761392      32.80941807
Si      26.86268895      10.80207478      17.17245151
Si       0.32240121      20.22436556      31.80207713
Si      27.73263064       3.64456083       0.22197748
Si      32.68029334      21.47892802      14.82918310
Si      27.18037686      27.24875555       1.03503610
Si       6.66653133      26.94845036       5.95434886
Si       7.58675253       0.05557759      15.19845208
Si      27.73174917      11.98417836      24.54457791
Si      28.26794534       9.85089034      25.54367378
Si      11.81022098      10.53553721       3.70282768
Si       8.81084235       2.07370718       3.09761418
Si       0.08509749      10.00456735      11.13835602
Si      22.59389630      26.40026063      24.29433797
Si      29.08805577      10.70231037      29.09294789
Si      26.35363600      26.91131779       8.12744247
Si       8.03757367       6.12979231      27.21755588
Si      22.84074269      10.47852654      30.69058965
Si      17.97761404      17.67124157       2.64168066
Si      16.36426414      25.66382109      24.57744480
Si      31.18948307      15.22790247       8.64568024
Si      31.43972636      30.24805836       3.09344491
Si      26.74394172      16.82460737      11.03765887
Si      14.76768119      20.03657067       0.47991790
Si      20.43503084       6.91479317      17.50108493
Si       8.78266322      11.06842945      25.28000895
Si       5.35122376      22.56304260      12.83242585
Si      17.21133943      22.17919897      24.70868666
Si       7.14324271       3.30353922      12.63678376
Si       1.25419225       0.97643450      20.56390376
Si      21.45951971      18.53364200      19.06190398
Si       7.32820851      29.84857591      10.44874445
Si      12.67058454      15.27249955       0.61867558
Si      24.97507136       9.45687540       4.32844099
Si      28.50440681      20.86468804      15.77105318
Si      10.55151839      21.56463736      10.68976143
Si      27.40178038      18.84658082      21.41425313
Si       2.90166649      12.98808905      32.41443145
Si      25.93051715      14.92968833      12.18990655
Si      18.60275470       2.88735513       4.73094493
Si       3.87250372      25.10031410      14.37442288
Si       6.65057131      18.46611419      19.10401408
Si      12.27872269      11.07049601      21.50372298
Si      11.93089290      14.32259462      20.06595716
Si       9.20012647      25.43932316      15.65232054
Si       7.11679493       1.23241679       1.78577329
Si      13.18615263       2.49119746       4.27627216
Si      23.56742823      17.44025415      31.15872535
Si       7.33319219      20.20300411      20.55584131
Si      13.03240496      14.89824283      25.88188046
Si      23.94215881      18.84670629      21.98059282
Si       7.43889694      16.86866889       8.72751551
Si      19.79086538      12.18874005       0.47045274
Si      22.24579185       9.23149297      32.60888136
Si       9.69903810      19.06774220       2.31442349
Si       1.03183927      22.49004807       1.93142212
Si      13.89006203      14.29264470      21.35516903
Si       0.32864760       7.86192537      22.63725707
Si      17.67339860      29.62217344      26.03578147
Si       6.98616837      30.50777376      27.69274778
Si       0.15209201      27.35900695      14.65138660
Si      31.75838926       4.83927837      18.03456937
Si       5.25539975       9.05655172       1.33276379
Si       3.54783012       8.96789515      10.13952836
Si       9.97385646      14.43776922      21.60973336
Si       1.55616968      16.39999278      31.08299442
Si       5.89034988       5.38738597       9.48289157
Si      12.33866553      32.07371839      18.44725901
Si      26.98754336      14.14225001       2.57067966
Si      30.74052277      18.74939308       1.67428677
Si      26.70675068      13.67790987      25.90136207
Si       2.11344169       8.45666381      28.63338068
Si      31.11607877       8.16883810      15.84499621
Si       0.08171733      19.75230582       8.70886190
Si      27.88341041      20.95837989      11.78427390
Si      31.25744942      19.62456422      18.44432062
Si       8.54237072      32.27585510      27.71932201
Si      23.57390618       3.91719126      25.00167845
Si      30.73311235       8.47914595       2.63493665
Si      29.82093613       7.68356759       8.51781711
Si      24.13968806      18.38276547      16.65904553
Si      20.56604350      12.55065032      19.52972822
Si      31.56843266      27.93047962      29.49225795
Si       7.78444512       9.80356557      16.34461431
Si      15.66693165      17.85300920      25.50656856
Si      28.74032679      10.16812474      31.33139778
Si      30.06108498      26.35485425      24.52608073
Si      28.63996117      24.12964125      30.30171848
Si      29.07364227      10.96487354      14.14607190
Si      14.98692796      24.48263471      15.99120379
Si      16.62203796      17.60697107       4.59442505
Si      20.69711670      16.98918319       0.60597109
Si       2.65145291      30.42371375      23.54249520
Si       8.03745218      15.88210664      16.85480260
Si      13.57021329      11.04947662       7.15067252
Si      24.30676167       1.65186956       0.31991996
Si      32.01748341       8.71695464       5.85779622
Si      12.40414520      18.58635951      15.10230925
Si      13.25240562      31.61279995      16.34308249
Si      31.90569301       5.06988324      32.06393197
Si      13.87411094      11.58021148      26.03233109
Si      15.08426854      12.87845249      14.81884144
Si       3.08811599      22.52829459       6.40901906
Si      32.74538791      12.98157041      30.51018870
Si      17.75828931      17.60906985      15.75282683
Si      24.56879862      26.31308210      14.68075616
Si      31.92478532      30.68667534      26.49877229
Si      17.49990087       2.99982174       8.08260451
Si      25.64164060      13.61976571       8.23286908
Si       1.41664168       1.09116249      25.36631473
Si      14.71102134       3.31631710      13.87802490
Si      13.88259405       3.37393926       9.98724659
Si       0.16554653       9.34347736      14.89418132
Si      16.80642098       9.69570956       8.48957825
Si       4.95091101      18.48533344       2.62966971
Si       8.56204278      24.41962174      20.45469022
Si      16.70151073      16.31938449      28.77693574
Si       9.14782005      20.94382366      19.27758491
Si      13.04507258      25.05157310      11.75411373
Si      32.20243129      16.87421151      27.98750008
Si       2.68436516      22.68713639      27.27770393
Si      24.71826661      22.01329194      10.33236812
Si      19.77693672      19.89796670      22.30971063
Si       6.76095905      21.95085687      11.08311409
Si       1.16252750       1.76902394       9.16043091
Si      12.21802242      32.47284306      21.92617056
Si       3.50080447      28.81990434      19.95074846
Si      26.98397968      26.52822937      22.54975558
Si      31.41365734       8.42358364      18.16941349
Si       8.97723278      14.74326904      23.97283830
Si      15.22683344       6.18141313      15.65502037
Si      32.08203242      20.44289803      22.06976249
Si      11.38117571       6.88427290      11.57050243
Si      11.28292484      32.53860673      30.27680941
Si      28.64821954       6.66285473      30.54618959
Si       1.74579431      18.92500942      16.21960605
Si      22.42457593      13.85162511       3.55224783
Si       3.15987933       9.61693443       6.80891310
Si       0.37716272      27.45831756       7.71684305